# vtk DataFile Version 3.0
Temperature data from class project
ASCII
DATASET STRUCTURED_POINTS
DIMENSIONS 80 80 1 
SPACING 0.012658227848101266 0.012658227848101266 0.0000
ORIGIN 0.0000 0.0000 0.0000

POINT_DATA 6400
SCALARS temperature double 1
LOOKUP_TABLE default
0.0
0.0
0.0
1.0
0.992887550825916
0.9716513771701715
0.9365935614443238
0.8882127975133818
0.8271972968262699
0.7544149986779247
0.6709012238610528
0.5778439473330956
0.4765668993932211
0.36851073575337595
0.25521254435723073
0.1382839804604264
0.019388340998392598
-0.09978309564348316
-0.21753512789296484
-0.3321927450610131
-0.4421249541985699
-0.545767980805463
-0.6416475133637137
-0.7283996752690111
-0.8047904258367674
-0.869733114405417
-0.9223039378316139
-0.9617550814960408
-0.9875253568903524
-0.9992481844666601
-0.9967568081943381
-0.980086667647607
-0.9494748938811938
-0.9053569362651829
-0.848360368261991
-0.7792959602576576
-0.6991461464355204
-0.6090510497498249
-0.5102922637925933
-0.40427462225505556
-0.29250621531119475
-0.1765769371883256
-0.05813587008332079
0.061132173864001584
0.17953061885230512
0.29537525903705086
0.4070182161874316
0.5128713805866926
0.6114290017314239
0.7012891074794031
0.7811734469608103
0.8499456735669123
0.9066275093650592
0.9504126610028356
0.9806782891490343
0.9969938683198327
0.9991273110600346
0.9870482693635289
0.9609285663705914
0.9211397522011816
0.8682478186922533
0.8030051482214084
0.7263398111440589
0.6393423640869568
0.5432503368910409
0.43943062887524187
0.3293600648326201
0.21460438734780907
0.09679598426790278
-0.022389331848723538
-0.1412561619957175
-0.2581136375972726
-0.3712994729417289
-0.47920361102686065
-0.5802911264570603
-0.6731240596010643
-0.756381871421538
-0.828880228008642
-0.8895878476095166
-0.9376411705063802
-0.9723566430657332
-0.9932404412193105
-0.999995495061253
0.992887550825916
0.992990431301086
0.9702092902735359
0.9332904306242295
0.8831261041382981
0.8205301214431884
0.7464150486645966
0.6618329099237663
0.5679768468858936
0.46616975185383014
0.35784747840168785
0.2445391761701144
0.12784580973865084
0.009417454667875524
-0.10907019140360738
-0.22593969913947748
-0.3395358370736341
-0.44824918932640884
-0.5505391203696949
-0.6449557577260483
-0.7301606788295525
-0.8049460074270092
-0.8682516479011588
-0.9191804125833594
-0.9570108271934661
-0.9812074326156277
-0.9914284368443054
-0.9875306086220899
-0.9695713435118538
-0.9378078733472832
-0.892693630618892
-0.8348718198012264
-0.7651662873367593
-0.6845698203986734
-0.5942300411123578
-0.49543309710411343
-0.38958538057905073
-0.27819353616274545
-0.16284304207414968
-0.04517566948435618
0.07313385913149731
0.1904016804505883
0.30495873070054447
0.41517447528321166
0.519480089902828
0.6163907632741743
0.704526803973995
0.7826332509999236
0.8495977088733379
0.9044661533633106
0.9464564827589033
0.9749696216658895
0.9895980190955167
0.9901314196519009
0.9765598253839286
0.9490736057952635
0.9080607540335828
0.8541013278298961
0.7879591537520265
0.7105709122007938
0.6230327577539712
0.5265846644106815
0.42259271748626714
0.3125296028476139
0.1979535693466119
0.08048616112357612
-0.03821096788471204
-0.15645983578522493
-0.2725901899339811
-0.38496353609581413
-0.4919968914483676
-0.5921861672985421
-0.6841295335621992
-0.7665525139256963
-0.8383413008821854
-0.8986080982257938
-0.9468797918768104
-0.9837791939785333
0.992990431301086
-0.9928830779283168
0.9716513771701715
0.9814266604391464
0.9564171219456732
0.9181132228455255
0.867077102391947
0.8040464275460494
0.7299084088623693
0.6456965171256297
0.5525829912019612
0.45186593158388694
0.3449525845323068
0.23334006329443396
0.11859430603530029
0.0023278248040657264
-0.11382331511835406
-0.22822289803651913
-0.33925798009836583
-0.4453619828310216
-0.545037121979514
-0.6368758490367364
-0.7195809989753374
-0.7919843572147959
-0.8530633819437498
-0.9019558444716707
-0.9379721800525196
-0.9606053742521528
-0.9695382449964279
-0.9646480174624952
-0.9460081274486113
-0.9138872282389141
-0.8687454157136982
-0.8112277259805876
-0.7421549985571433
-0.6625122355706206
-0.5734346230238337
-0.4761914134015308
-0.37216789928679445
-0.2628457347894126
-0.1497818850719286
-0.03458650376004597
0.08109994673519966
0.19563000619243642
0.30737262692761014
0.4147363501737769
0.5161919184740521
0.6102940020804613
0.695701729939284
0.7711977328282118
0.8357054273504272
0.888304294484617
0.9282429348820856
0.9549497146869055
0.9680408498827092
0.9673258135529048
0.9528099884615905
0.9246945264786135
0.8833734160263961
0.8294277983524758
0.7636176124634271
0.6868706864324221
0.600269428965676
0.5050353090495759
0.40251134268245387
0.2941428336096342
0.18145663909042412
0.0660392513997509
-0.05048599988182084
-0.16648231221905568
-0.28032303083787535
-0.39041523399346584
-0.4952230395479776
-0.5932904979636734
-0.6832641597030534
-0.7639157902840646
-0.8341659317852151
-0.893106025052545
-0.9399914891260807
-0.9740236345784734
0.9702092902735358
-0.9716469999402338
0.9365935614443238
0.9564171219456732
0.929998043101406
0.8910859568839415
0.8401290475159436
0.777790801218884
0.7049077026820473
0.6224692829708653
0.5316031488954194
0.43355945324274536
0.3296935731198888
0.22144702309291217
0.11032693234875039
-0.0021155379375886957
-0.11430746861932278
-0.2246767931724631
-0.33167490137160444
-0.43379890251487585
-0.529613225305605
-0.6177702442808904
-0.6970296384367836
-0.7662762068117955
-0.8245358883308294
-0.8709897590612218
-0.9049858089413341
-0.9260483316683503
-0.9338847953673155
-0.928390097450394
-0.9096481442201086
-0.877930733753926
-0.8336937588954277
-0.7775707852282565
-0.7103640961838592
-0.633033333403692
-0.546681894629972
-0.4525412832506881
-0.351953632721424
-0.2463526550146435
-0.1372432846375367
-0.026180308293695748
0.08525371532194866
0.19547093101647395
0.302900737681787
0.4060120926963736
0.5033352523674822
0.5934826386412856
0.6751685347145259
0.747227328810305
0.8086300459961727
0.8584989322308684
0.8961198824807515
0.9209525353542044
0.9326378898261347
0.9310033347932318
0.916065018912758
0.8880275259100655
0.8472808587546067
0.7943947742553137
0.7301105471680581
0.6553302793012946
0.5711039038243454
0.47861406751633306
0.379159103550711
0.27413433411240584
0.16501196521270822
0.053319854990042645
-0.059380549038162776
-0.1715167996518057
-0.28152826028913724
-0.38788883524076023
-0.4891293308319625
-0.5838591664163774
-0.6707871053382048
-0.7487403712033653
-0.8166802753411503
-0.8737083162011241
-0.9190454507133888
-0.9519517405983379
0.9332904306242292
-0.9365893421476986
0.8882127975133818
0.9181132228455253
0.8910859568839414
0.8524081792230742
0.8024947383453279
0.7419540887759093
0.6715643216158422
0.592254306590088
0.5050872343487658
0.41124419847607224
0.31200678805690857
0.2087384468123997
0.10286470490913271
-0.00414747248711543
-0.11081092558148929
-0.2156398185148742
-0.31717112234764633
-0.4139857519283046
-0.504729053498407
-0.5881303508904523
-0.6630212727134674
-0.7283526009505097
-0.7832094028045262
-0.8268242322285813
-0.8585882150880435
-0.8780598619839357
-0.8849714850223617
-0.8792331288065071
-0.8609339611847318
-0.8303411053174876
-0.7878959309198436
-0.7342078585821091
-0.6700457663575157
-0.5963271218321518
-0.5141049951748261
-0.4245531387441337
-0.3289493462788319
-0.22865732912504574
-0.12510736801218048
-0.01977601627894634
0.08583485607590184
0.19021937877843587
0.2918890542366731
0.3893938823971582
0.4813429363444901
0.5664240952790596
0.6434226534644679
0.7112385396863381
0.7689019014811843
0.8155868315967225
0.8506230405028292
0.873505307909683
0.8839005777512083
0.8816525945088161
0.8667840136062495
0.839495954404158
0.8001650005522362
0.7493376886003297
0.6877225613114111
0.6161798965499345
0.5357092554441978
0.44743502426655407
0.3525901526919301
0.2524983163652738
0.14855475365256401
0.042206044742735996
-0.06507088431300789
-0.17179023946733493
-0.27647901787491297
-0.37769854104388606
-0.4740655408068316
-0.5642724356760249
-0.6471063143427922
-0.7214658261578533
-0.7863744643673967
-0.8409875513155098
-0.884590171043875
-0.9165936628597265
0.883126104138298
-0.8882087961691346
0.8271972968262699
0.8670771023919468
0.8401290475159435
0.8024947383453278
0.7545599721829531
0.69688018290749
0.6301677329006152
0.5552772330908673
0.47319038626450777
0.38500018638855177
0.2918941878567131
0.19513675768782
0.09605039791835335
-0.004003670397335795
-0.10364541597841274
-0.20149612755485172
-0.29619848388598646
-0.3864362804554123
-0.4709535341673131
-0.5485726963398246
-0.6182117171913581
-0.6788997215058734
-0.7297910749779941
-0.7701776436091404
-0.7994990741486429
-0.8173509516057439
-0.8234907199173178
-0.8178412835264993
-0.8004922404669815
-0.7716987310948288
-0.7318779203905127
-0.681603165290031
-0.6215959513194822
-0.5527157144360365
-0.47594769397004427
-0.3923889904912968
-0.3032330278896367
-0.20975264160362905
-0.11328203442840488
-0.015197857407430525
0.08310031426604603
0.1802098318206363
0.274744866794629
0.3653560644612113
0.4507496764170173
0.5297058993425549
0.6010961581983053
0.6638990870876356
0.7172149794836917
0.7602785012188606
0.7924694842627729
0.8133216465170201
0.8225291122439186
0.8199506389036817
0.8056114886549837
0.7797029161149098
0.7425792777002453
0.6947528015020262
0.6368860896998438
0.569782457530665
0.4943742433337823
0.4117092527673132
0.32293552653336677
0.229284644504717
0.13205379972809486
0.03258689320878982
-0.06774508532397996
-0.16756411390185502
-0.26550534521703384
-0.3602371656373776
-0.4504807889696604
-0.5350290290237082
-0.6127638183153242
-0.6826719117420572
-0.7438580901618976
-0.7955554148299724
-0.8371338968865487
-0.8681149259085112
0.8205301214431884
-0.8271935703531159
0.7544149986779247
0.8040464275460494
0.777790801218884
0.7419540887759093
0.69688018290749
0.6430637549279279
0.5811417246983857
0.5118816105148504
0.4361682388458568
0.35498929072109187
0.26941981747811156
0.1806058139532865
0.08974698020739698
-0.0019211471568119363
-0.09314547670314312
-0.18267381757161785
-0.2692732582391786
-0.3517482150712435
-0.428957899698244
-0.49983296147743955
-0.5633910724763151
-0.6187512371029383
-0.6651466263766918
-0.7019357575739448
-0.7286118632842083
-0.7448103194376922
-0.7503140292531094
-0.7450566889181283
-0.7291238907459758
-0.7027520501264204
-0.6663251733739236
-0.6203695141327653
-0.5655461958938479
-0.5026419069851689
-0.43255780170743613
-0.3562967667089745
-0.2749492348677368
-0.18967774954270847
-0.10170049977879932
-0.01227406164595453
0.0773244078433137
0.1658152700239165
0.2519345386960695
0.3344517901894054
0.41218759366021646
0.4840302127025646
0.5489513396761243
0.6060206378567239
0.654418883404085
0.6934495189742659
0.722548453298782
0.7412919658873804
0.7494026028325859
0.7467529781187587
0.7333674244609237
0.7094214680964904
0.6752391326927215
0.6312881081763883
0.578172850403558
0.5166257067398651
0.4474961904042219
0.3717385524557056
0.2903978242233075
0.20459452449017082
0.11550824461967124
0.02436034093529349
-0.06760402289070347
-0.1591342295450536
-0.24899269426176454
-0.33597320993546714
-0.4189188649965749
-0.4967392303999134
-0.5684264927497775
-0.633070213648405
-0.6898705057201908
-0.7381498464443346
-0.7773648510878194
-0.8071210684953505
0.7464150486645966
-0.7544116000845659
0.6709012238610528
0.7299084088623693
0.7049077026820473
0.6715643216158422
0.6301677329006153
0.5811417246983857
0.5250371770288963
0.46252227808443785
0.39437098672272336
0.32145019783971507
0.24470585689756538
0.1651481928607826
0.08383623083373201
0.001861761735085136
-0.07966703467808989
-0.15964210256865627
-0.2369719390803652
-0.3105977171647949
-0.37950888137739647
-0.44275800171727725
-0.49947468008486245
-0.5488783166735517
-0.5902895592739881
-0.6231402767539519
-0.6469819185834477
-0.6614921448899582
-0.6664796358212198
-0.6618870146115228
-0.6477918453252391
-0.6244056934082592
-0.5920712645266653
-0.5512576643221268
-0.5025538482778821
-0.4466603564888123
-0.38437945239886284
-0.3166038071626866
-0.2443038918835964
-0.16851425828293443
-0.09031890410573479
-0.010835932539465163
0.0687982750683145
0.14744514700401626
0.2239800396048565
0.29730815596648663
0.36638003742921343
0.4302064063727672
0.4878721480277905
0.5385492311953707
0.5815083827799981
0.6161293486718825
0.6419095935097816
0.6584713139298264
0.6655666637439916
0.663081114753389
0.651034903225733
0.6295825390773208
0.5990103821123074
0.5597323168967762
0.512283584595081
0.45731285599273847
0.3955726546106316
0.3279082619394911
0.25524525808399606
0.1785758702396291
0.09894431823159218
0.017431360708477794
-0.06486174249336095
-0.14682962666228094
-0.22737934439428253
-0.305446774855439
-0.3800126772696785
-0.45011814612687256
-0.5148792391005705
-0.5735005979664601
-0.6252880139229543
-0.6696601642950368
-0.7061601611904861
-0.7344677349689357
0.6618329099237663
-0.670898201492134
0.5778439473330956
0.6456965171256296
0.6224692829708653
0.592254306590088
0.5552772330908673
0.5118816105148504
0.4625222780844379
0.40775692958318255
0.3482361948328866
0.28469253760925883
0.21792819131594562
0.1488023082042568
0.07821748368827888
0.007105820202766031
-0.06358529616258383
-0.13290752443792633
-0.19992581534770212
-0.26373238585189096
-0.32346023320119294
-0.37829600481390024
-0.42749204814483976
-0.470377475406547
-0.5063680912563936
-0.5349750471208181
-0.5558121034235718
-0.5686014003416748
-0.5731776585386911
-0.5694907533133534
-0.5576066284329889
-0.5377065392661612
-0.5100846383519495
-0.4751439399070254
-0.4333907226415648
-0.385427452303847
-0.3319443262858141
-0.27370956209898517
-0.21155856929360434
-0.14638216018999245
-0.07911396839414925
-0.010717255285485838
0.05782870666696258
0.12554247890609246
0.19145433201151127
0.25461995261497083
0.31413378584474705
0.3691418222829945
0.418853646267063
0.4625535728016795
0.4996107132245222
0.5294878248988861
0.5517488173774739
0.5660648064452554
0.5722186279355809
0.5701077449292992
0.5597455045809279
0.54126072404533
0.514895608470942
0.4810020274461168
0.4400361993002187
0.39255185494465294
0.3391919741780409
0.28067920728058077
0.21780511301790892
0.15141836063119443
0.08241205781693095
0.011710378955580658
-0.0597453221594087
-0.1310107231795106
-0.20115287053554778
-0.26926444383898973
-0.3344777498205435
-0.39597825752476046
-0.4530175098442792
-0.5049252956405906
-0.5511210554386498
-0.5911246200962417
-0.6245664775788304
-0.6511976107344177
0.5679768468858937
-0.5778413441815076
0.4765668993932211
0.5525829912019613
0.5316031488954193
0.5050872343487658
0.47319038626450777
0.4361682388458568
0.3943709867227234
0.3482361948328866
0.29828047868031554
0.2450902233969167
0.1893115020739799
0.13163933959196386
0.07280646150035441
0.013571668250710028
-0.045292020396843734
-0.1030093008792143
-0.15881444758321808
-0.2119629456920124
-0.2617427410673737
-0.30748495681484517
-0.3485739323813306
-0.38445644956789465
-0.414650020512643
-0.43875012530367813
-0.4564363012020454
-0.4674770012585288
-0.47173315715264763
-0.46916039911180957
-0.45980990451763415
-0.44382786600152946
-0.4214535891945565
-0.39301624954801434
-0.3589303565039404
-0.3196899914978604
-0.2758619035584398
-0.2280775623824513
-0.17702428347784185
-0.12343555307200157
-0.0680806917890731
-0.011754005447568012
0.04473642141597635
0.10058012863373711
0.15497571665121057
0.20714215199679734
0.2563297798784685
0.30183088593352303
0.34298965551110455
0.37921138735947346
0.4099708290992966
0.4348195142398255
0.4533919945594054
0.4654108772237024
0.4706905928314016
0.46913983841679846
0.4607626580458828
0.44565814275037474
0.424018750878835
0.3961272692284993
0.36235245428014384
0.32314341122082374
0.2790227859454279
0.23057886163168906
0.1784566665572424
0.1233482133663599
0.06598200181652157
0.007111926979130012
-0.052494257223946524
-0.11206676359278893
-0.1708457276643752
-0.22809313559375932
-0.2831045698644202
-0.33522063001589075
-0.38383790688020447
-0.4284194237417358
-0.4685045057185332
-0.5037180838139674
-0.5337794347316808
-0.5585102174930936
0.4661697518538302
-0.4765647524885305
0.36851073575337595
0.45186593158388694
0.43355945324274536
0.41124419847607224
0.38500018638855177
0.3549892907210919
0.3214501978397151
0.2846925376092589
0.24509022339691672
0.20307408741754587
0.15912391367517248
0.11375997365282639
0.0675341706542192
0.021020900763542964
-0.025192258315373472
-0.07051391582784551
-0.114358176619662
-0.15615377141223225
-0.19535289091021393
-0.23143960852535722
-0.2639377809642549
-0.2924183221926324
-0.3165057542287838
-0.3358839476849359
-0.3503009758028768
-0.35957301774137546
-0.3635872598788077
-0.3623037576963162
-0.35575623519809946
-0.34405181359335946
-0.3273696758927711
-0.3059586889437498
-0.2801340190277156
-0.2502727912580168
-0.2168088564456152
-0.18022674164774244
-0.14105487210206893
-0.0998581625104921
-0.0572300845251607
-0.013784324677331488
0.029853847228785108
0.07305637514268652
0.11520125275565514
0.1556812714277841
0.19391255425722428
0.22934275349200645
0.2614587932100288
0.28979404557819205
0.31393483695536806
0.33352618951151647
0.3482767147615024
0.3579625873027007
0.3624305399291705
0.3615998349865414
0.35546318113354597
0.34408657938222864
0.3276080971872078
0.30623558423005404
0.28024335818324514
0.24996790292804302
0.21580263523720877
0.17819180862106296
0.13762363468951727
0.0946227128305869
0.04974186808418357
0.003553504636732589
-0.04335941180142351
-0.09041262557880894
-0.13702999787881734
-0.1826529311412317
-0.22674969846464602
-0.26882457499142925
-0.3084266837711109
-0.3451584896736654
-0.3786838973215388
-0.40873592029677047
-0.4351238662089946
-0.4577399028417841
0.3578474784016879
-0.3685090756350838
0.25521254435723073
0.3449525845323068
0.32969357311988884
0.31200678805690857
0.29189418785671317
0.26941981747811156
0.2447058568975654
0.21792819131594565
0.1893115020739799
0.15912391367517248
0.12767125129205467
0.09529097191783953
0.062345836842701
0.029217396428857734
-0.0037006388025860757
-0.03600906401548625
-0.06730980396840182
-0.09721241498339024
-0.12534038500534933
-0.15133715310484225
-0.1748717724005736
-0.19564414426579463
-0.21338975676380584
-0.22788386643673397
-0.23894506973880922
-0.2464382184389593
-0.2502766420871019
-0.2504236500060869
-0.24689329509296293
-0.23975039184088417
-0.2291097912756168
-0.21513492578637639
-0.19803564696873735
-0.17806538943958752
-0.15551770298738982
-0.13072220424895928
-0.1040400072287982
-0.07585869928136346
-0.04658693555509214
-0.01664873025768161
0.013522472632137336
0.04348986347158133
0.07281937823611628
0.1010857686530768
0.12787854341970561
0.15280769452521512
0.1755091256863557
0.1956497040558595
0.21293186161287747
0.2270976789180962
0.23793239112271056
0.24526726415539446
0.2489817977582985
0.24900522137491318
0.24531725867370605
0.2379481465793402
0.22697790493082193
0.21253486314319078
0.19479346036574505
0.17397134545594697
0.15032581247770224
0.1241496162435864
0.09576622051546245
0.0655245387232596
0.03379323332420217
0.0009546450640459804
-0.032601572743185835
-0.0664850374323396
-0.10031135960535188
-0.13370892855894492
-0.16632568797705902
-0.1978358362948829
-0.22794639591343696
-0.2564036067254719
-0.28299910850687177
-0.3075758767109854
-0.3300338586326103
-0.35033521990939237
0.2445391761701144
-0.2552113946403509
0.1382839804604264
0.233340063294434
0.2214470230929122
0.20873844681239972
0.19513675768782004
0.18060581395328656
0.1651481928607827
0.14880230820425686
0.13163933959196386
0.1137599736528264
0.09529097191783954
0.07638158869847879
0.0571998673782644
0.037928846985103
0.01876271365663198
-9.706604942321333e-05
-0.01844559112405381
-0.03607831108341872
-0.05279470892325842
-0.06840184097183857
-0.08271769324981625
-0.09557431536634853
-0.10682069510626009
-0.116325339648196
-0.12397853274219245
-0.12969424110279193
-0.13341164767051614
-0.13509629418533867
-0.13474082062227588
-0.13236529438007683
-0.12801712760612186
-0.12177058659996658
-0.11372590278046615
-0.10400800014411378
-0.09276485940425222
-0.08016554400442945
-0.06639791787079351
-0.051666089039623005
-0.036187617104501205
-0.020190525717815832
-0.003910164105433586
0.012414036327872942
0.028541862741923094
0.044235630567700954
0.05926345363447135
0.0734024266889219
0.0864416734545766
0.0981852152015878
0.10845461723687112
0.11709137374621151
0.1239589949786591
0.1289447648064983
0.13196114116129942
0.13294677667161064
0.13186714193872542
0.12871473920711007
0.12350889963534611
0.1162951628691033
0.10714424307536488
0.09615059093173103
0.08343056619081815
0.06912024027224684
0.053372852787703234
0.03635594989027568
0.018248235764779738
-0.000763828662138958
-0.02048964373544909
-0.04073826870453923
-0.06132236192926759
-0.08206222796821211
-0.10278993866465765
-0.12335349959020378
-0.14362103845609273
-0.16348499714584125
-0.18286631156133193
-0.20171856039688582
-0.22003205313418506
-0.2378378119407233
0.12784580973865087
-0.13828335749956472
0.019388340998392598
0.11859430603530031
0.11032693234875043
0.10286470490913277
0.09605039791835339
0.08974698020739703
0.08383623083373205
0.07821748368827892
0.07280646150035446
0.06753417065421922
0.06234583684270103
0.057199867378264414
0.052066829732259554
0.04692843848576738
0.04177654498269104
0.036612125899558444
0.03144426879592545
0.02628915448408469
0.021169037717438763
0.016111229200568917
0.011147083238438191
0.006310996447912237
0.0016394238431990346
-0.0028300807231432844
-0.0070597923263660545
-0.011012703257317654
-0.014653364096234875
-0.017948669974394
-0.02086858473870164
-0.023386796210360036
-0.02548129635367347
-0.02713488092990633
-0.02833556408793771
-0.02907690432148879
-0.029358239284378033
-0.02918482808243512
-0.028567900834799046
-0.027524616499538326
-0.026077931170055132
-0.024256380250984186
-0.022093779097145022
-0.019628847829118532
-0.01690476710768731
-0.01396867264134817
-0.010871097102381592
-0.007665368925118742
-0.004406978144398428
-0.001152919993975697
0.0020389725829036663
0.005110696059988444
0.008004731478454031
0.010664675982066725
0.01303583920566413
0.015065793222526297
0.01670486511530977
0.017906561706972034
0.018627916560708002
0.018829750017149427
0.01847683376626955
0.017537952231260385
0.015985853849753866
0.013797086148097912
0.010951709286160015
0.007432883466064378
0.0032263262023859347
-0.0016803641139008186
-0.007298521731519162
-0.013639367641351778
-0.02071510832307126
-0.02854018424159467
-0.03713267475627178
-0.04651586803307437
-0.056720006431121316
-0.06778421886092413
-0.07975865061316766
-0.09270679703759384
-0.10670804030148227
-0.12186038121750974
0.009417454667875538
-0.019388253655103993
-0.09978309564348316
0.002327824804065743
-0.002115537937588671
-0.004147472487115392
-0.0040036703973357545
-0.0019211471568118922
0.001861761735085178
0.007105820202766074
0.013571668250710071
0.021020900763543
0.029217396428857755
0.03792884698510302
0.046928438485767394
0.05599663740442751
0.06492303554728478
0.07350820913550588
0.08156554919449781
0.08892302258299717
0.09542482560573069
0.10093289515079541
0.10532824563894312
0.10851210372537365
0.11040681661252615
0.11095651397009654
0.11012750776935122
0.10790841877356724
0.1043100229335148
0.09936481546269171
0.09312629485646506
0.08566797351666841
0.07708212589304178
0.06747828910078041
0.05698153476696275
0.045730534348188905
0.033875443301456996
0.021575632238611024
0.008997295515136351
-0.003689030434181476
-0.01631100532190014
-0.02869704522934259
-0.04067886989162242
-0.05209400226890822
-0.06278818629519708
-0.07261768986965249
-0.08145146181791996
-0.08917311367852399
-0.09568269973289588
-0.10089827166131438
-0.10475718753020495
-0.10721715845321278
-0.10825702016951269
-0.10787722089486791
-0.10610002106837116
-0.10296940498327443
-0.09855070869572012
-0.0929299729925519
-0.0862130345118512
-0.07852437229269606
-0.07000573103235981
-0.060814546102595686
-0.051122198880227655
-0.0411121341464045
-0.0309778741775196
-0.020920966673114973
-0.011148905838123889
-0.0018730677677380597
0.006693297204828392
0.01433697131255914
0.0208465304560233
0.02601391402003128
0.02963575737962596
0.03151444104854818
0.03145881111106829
0.029284527410690094
0.02481399942201163
0.01787587499795677
0.008304053621378088
-0.004063798623848445
-0.10907019140360737
0.0997826461267493
-0.21753512789296484
-0.11382331511835403
-0.11430746861932276
-0.11081092558148925
-0.1036454159784127
-0.09314547670314306
-0.07966703467808985
-0.0635852961625838
-0.04529202039684369
-0.025192258315373434
-0.0037006388025860445
0.018762713656632006
0.04177654498269105
0.06492303554728479
0.0877924766051348
0.10998797421520304
0.13113009741573506
0.15086139002837462
0.16885066903098764
0.18479703692915872
0.19843354092379425
0.20953041785277182
0.21789787080186648
0.22338833084759877
0.2258981655162523
0.225368804114927
0.2217872590008755
0.21518603098756758
0.20564239631882747
0.19327708185245054
0.17825234415772256
0.1607694770242276
0.1410657802822527
0.11941103073280958
0.0961035032691678
0.07146559684136675
0.04583912567963021
0.019580341072142946
-0.006945247080367278
-0.03336817679080833
-0.059320394577692954
-0.08444059530872547
-0.10837946676687206
-0.13080476577484454
-0.15140615513971814
-0.16989973413182727
-0.18603219964273307
-0.19958458051391714
-0.21037549371620812
-0.21826387800344108
-0.22315116826577772
-0.22498288196283087
-0.2237495976111937
-0.21948731421642506
-0.21227718965330608
-0.20224466518550288
-0.1895579924517488
-0.17442618820723954
-0.15709645077690218
-0.1378510804382519
-0.11700395370034393
-0.09489660858654782
-0.07189400447923727
-0.04838002577460349
-0.024752803471592165
-0.0014199328423085463
0.021206331521028094
0.04271381972728544
0.06269504475636954
0.08075156940916765
0.09649805718141583
0.10956592377531407
0.11960650873989381
0.12629369089135503
0.12932587681105884
0.12842729869543493
0.12334856548906444
0.11386641831170949
-0.22593969913947748
0.21753414791053835
-0.3321927450610131
-0.22822289803651913
-0.2246767931724631
-0.21563981851487415
-0.2014961275548517
-0.1826738175716178
-0.1596421025686562
-0.13290752443792628
-0.10300930087921424
-0.07051391582784547
-0.03600906401548622
-9.706604942318298e-05
0.03661212589955847
0.07350820913550589
0.10998797421520304
0.14546278752876352
0.17936599024969901
0.21116009421864318
0.24034365981523453
0.26645774682042467
0.2890918366123267
0.30788913268409956
0.3225511563129358
0.33284156511744917
0.3385891340731232
0.3396898511545533
0.33610809296985905
0.3278768593683493
0.31509705985189534
0.29793585851388354
0.2766240979759507
0.2514528362020908
0.2227690429563476
0.19097051485510932
0.1565000792783107
0.11983916768778999
0.08150084801195678
0.04202241356636509
0.0019576323804217557
-0.03813123429835364
-0.07768153221801229
-0.11613831923096597
-0.1529623613954602
-0.18763790772743588
-0.2196801344382573
-0.24864215424440947
-0.274121492591874
-0.2957659403124924
-0.31327870121438883
-0.3264227632773338
-0.3350244333342072
-0.33897598721450667
-0.33823740013608133
-0.33283713547826044
-0.32287198376762777
-0.30850595756691873
-0.28996826178659746
-0.2675503725477674
-0.2416022709288074
-0.2125278905484477
-0.18077984980705705
-0.14685355057076813
-0.11128073500028585
-0.07462260097600075
-0.03746258405088372
-0.00039891999007235176
0.03596289333209993
0.0710176126571603
0.10416762091655335
0.13483002965701432
0.1624433896580076
0.18647389002710696
0.20642093065586725
0.22182195918175016
0.23225647145075562
0.23734908364153293
0.23677159415498808
0.23024396330134564
-0.3395358370736341
0.3321912485530444
-0.4421249541985699
-0.3392579800983657
-0.3316749013716044
-0.3171711223476463
-0.29619848388598646
-0.2692732582391786
-0.2369719390803651
-0.199925815347702
-0.158814447583218
-0.11435817661966194
-0.06730980396840178
-0.018445591124053768
0.03144426879592548
0.08156554919449782
0.13113009741573506
0.17936599024969901
0.22552757764267367
0.26890525807994786
0.3088348344758183
0.3447063067463303
0.3759719664717729
0.4021536700640951
0.4228491794972131
0.4377374737685496
0.4465829496489029
0.4492384467364552
0.4456470491348318
0.43584263398712364
0.4199491553706687
0.39817867043816296
0.37082813292401123
0.33827499696675023
0.3009716913799208
0.25943904079459396
0.2142587252686264
0.16606488379779968
0.11553497947793331
0.06338005468177949
0.010334513380740346
-0.04285442546414236
-0.09543745479049802
-0.14667393535777098
-0.19584252903807287
-0.24225155956119726
-0.28524895470524525
-0.32423162992557203
-0.35865418142763006
-0.38803676660075515
-0.41197206140035697
-0.4301311975309796
-0.4422685969556474
-0.4482256371315457
-0.4479330972255341
-0.44141235315900035
-0.42877530742393216
-0.4102230579482996
-0.3860433286137411
-0.35660670208815415
-0.32236171318106527
-0.2838288777202369
-0.24159374775583334
-0.19629909851131908
-0.14863636572471262
-0.09933646368806598
-0.049160124248977394
0.0011120948375973813
0.050689977624102246
0.09878383497749815
0.14461454597000947
0.1874232947012352
0.22648084366514254
0.261096188950979
0.2906244488246617
0.31447384549762347
0.33211164998603515
0.34306897159812405
0.34694428631617746
0.34340561161379346
-0.44824918932640884
0.4421229624527327
-0.545767980805463
-0.4453619828310216
-0.43379890251487574
-0.41398575192830456
-0.38643628045541223
-0.35174821507124343
-0.31059771716479484
-0.26373238585189085
-0.2119629456920123
-0.15615377141223216
-0.09721241498339017
-0.03607831108341866
0.02628915448408474
0.08892302258299721
0.15086139002837465
0.21116009421864318
0.2689052580799479
0.32322550393974675
0.37330365112724695
0.4183877207436585
0.4578010820533987
0.49095158817891793
0.5173395640630473
0.5365645267889138
0.5483305370860546
0.5524501009458309
0.5488465614427224
0.5375549428174924
0.5187212313183978
0.4926000999048413
0.4595511063782389
0.4200334165029305
0.3745991249071921
0.323885266712673
0.26860463164642695
0.20953550957845923
0.1475105117572299
0.08340462526979342
0.018122669245291132
-0.04741367010469887
-0.11227904247890144
-0.17555768796897717
-0.23635655574724476
-0.29381810161502037